<?xml version="1.0" encoding="UTF-8"?>

<!-- generated on Fri Mar 12 18:52:39 2021 by Eclipse SUMO GUI Version 1.8.0
<configuration xmlns:xsi="http://www.w3.org/2001/XMLSchema-instance" xsi:noNamespaceSchemaLocation="http://sumo.dlr.de/xsd/sumoConfiguration.xsd">

    <input>
        <net-file value="/Users/johnsmacbook/MyDocs/Facultate/Master/Disertatie/myproj/junction/clasic3lane.net.xml"/>
        <route-files value="/Users/johnsmacbook/MyDocs/Facultate/Master/Disertatie/myproj/junction/classic3lanes.rou.xml"/>
    </input>

    <output>
        <tripinfo-output value="tripinfo.xml"/>
    </output>

    <traci_server>
        <remote-port value="61349"/>
    </traci_server>

</configuration>
-->

<tripinfos xmlns:xsi="http://www.w3.org/2001/XMLSchema-instance" xsi:noNamespaceSchemaLocation="http://sumo.dlr.de/xsd/tripinfo_file.xsd">
    <tripinfo id="flow_6.0" depart="0.00" departLane="nptocp_0" departPos="5.10" departSpeed="0.00" departDelay="0.00" arrival="33.00" arrivalLane="cptowp_0" arrivalPos="186.40" arrivalSpeed="13.50" duration="33.00" routeLength="376.73" waitingTime="0.00" waitingCount="0" stopTime="0.00" timeLoss="6.10" rerouteNo="0" devices="tripinfo_flow_6.0 routing_flow_6.0" vType="DEFAULT_VEHTYPE" speedFactor="1.05" vaporized=""/>
    <tripinfo id="flow_1.0" depart="3.00" departLane="sptocp_0" departPos="5.10" departSpeed="0.00" departDelay="3.00" arrival="38.00" arrivalLane="cptonp_0" arrivalPos="186.40" arrivalSpeed="12.87" duration="35.00" routeLength="394.90" waitingTime="0.00" waitingCount="0" stopTime="0.00" timeLoss="3.91" rerouteNo="0" devices="tripinfo_flow_1.0 routing_flow_1.0" vType="DEFAULT_VEHTYPE" speedFactor="0.94" vaporized=""/>
    <tripinfo id="flow_7.0" depart="3.00" departLane="nptocp_0" departPos="5.10" departSpeed="0.00" departDelay="3.00" arrival="39.00" arrivalLane="cptosp_0" arrivalPos="186.40" arrivalSpeed="12.26" duration="36.00" routeLength="394.90" waitingTime="0.00" waitingCount="0" stopTime="0.00" timeLoss="3.91" rerouteNo="0" devices="tripinfo_flow_7.0 routing_flow_7.0" vType="DEFAULT_VEHTYPE" speedFactor="0.89" vaporized=""/>
    <tripinfo id="flow_2.0" depart="5.00" departLane="sptocp_0" departPos="5.10" departSpeed="0.00" departDelay="5.00" arrival="40.00" arrivalLane="cptoep_0" arrivalPos="186.40" arrivalSpeed="12.88" duration="35.00" routeLength="376.73" waitingTime="0.00" waitingCount="0" stopTime="0.00" timeLoss="7.24" rerouteNo="0" devices="tripinfo_flow_2.0 routing_flow_2.0" vType="DEFAULT_VEHTYPE" speedFactor="1.01" vaporized=""/>
    <tripinfo id="flow_1.1" depart="12.00" departLane="sptocp_0" departPos="5.10" departSpeed="0.00" departDelay="0.00" arrival="45.00" arrivalLane="cptonp_0" arrivalPos="186.40" arrivalSpeed="13.39" duration="33.00" routeLength="394.90" waitingTime="0.00" waitingCount="0" stopTime="0.00" timeLoss="3.68" rerouteNo="0" devices="tripinfo_flow_1.1 routing_flow_1.1" vType="DEFAULT_VEHTYPE" speedFactor="0.99" vaporized=""/>
    <tripinfo id="flow_7.1" depart="15.00" departLane="nptocp_0" departPos="5.10" departSpeed="0.00" departDelay="3.00" arrival="45.00" arrivalLane="cptosp_1" arrivalPos="186.40" arrivalSpeed="15.54" duration="30.00" routeLength="394.90" waitingTime="0.00" waitingCount="0" stopTime="0.00" timeLoss="5.05" rerouteNo="0" devices="tripinfo_flow_7.1 routing_flow_7.1" vType="DEFAULT_VEHTYPE" speedFactor="1.16" vaporized=""/>
    <tripinfo id="flow_6.1" depart="12.00" departLane="nptocp_0" departPos="5.10" departSpeed="0.00" departDelay="0.00" arrival="47.00" arrivalLane="cptowp_0" arrivalPos="186.40" arrivalSpeed="12.41" duration="35.00" routeLength="376.73" waitingTime="0.00" waitingCount="0" stopTime="0.00" timeLoss="5.15" rerouteNo="0" devices="tripinfo_flow_6.1 routing_flow_6.1" vType="DEFAULT_VEHTYPE" speedFactor="0.94" vaporized=""/>
    <tripinfo id="flow_2.1" depart="14.00" departLane="sptocp_0" departPos="5.10" departSpeed="0.00" departDelay="2.00" arrival="51.00" arrivalLane="cptoep_0" arrivalPos="186.40" arrivalSpeed="12.81" duration="37.00" routeLength="376.73" waitingTime="0.00" waitingCount="0" stopTime="0.00" timeLoss="6.54" rerouteNo="0" devices="tripinfo_flow_2.1 routing_flow_2.1" vType="DEFAULT_VEHTYPE" speedFactor="0.93" vaporized=""/>
    <tripinfo id="flow_7.2" depart="26.00" departLane="nptocp_0" departPos="5.10" departSpeed="0.00" departDelay="2.00" arrival="56.00" arrivalLane="cptosp_1" arrivalPos="186.40" arrivalSpeed="15.31" duration="30.00" routeLength="394.90" waitingTime="0.00" waitingCount="0" stopTime="0.00" timeLoss="5.17" rerouteNo="0" devices="tripinfo_flow_7.2 routing_flow_7.2" vType="DEFAULT_VEHTYPE" speedFactor="1.18" vaporized=""/>
    <tripinfo id="flow_6.2" depart="24.00" departLane="nptocp_0" departPos="5.10" departSpeed="0.00" departDelay="0.00" arrival="59.00" arrivalLane="cptowp_0" arrivalPos="186.40" arrivalSpeed="12.13" duration="35.00" routeLength="376.73" waitingTime="0.00" waitingCount="0" stopTime="0.00" timeLoss="5.16" rerouteNo="0" devices="tripinfo_flow_6.2 routing_flow_6.2" vType="DEFAULT_VEHTYPE" speedFactor="0.93" vaporized=""/>
    <tripinfo id="flow_0.0" depart="0.00" departLane="sptocp_0" departPos="5.10" departSpeed="0.00" departDelay="0.00" arrival="63.00" arrivalLane="cptowp_2" arrivalPos="186.40" arrivalSpeed="13.83" duration="63.00" routeLength="392.21" waitingTime="25.00" waitingCount="1" stopTime="0.00" timeLoss="34.98" rerouteNo="0" devices="tripinfo_flow_0.0 routing_flow_0.0" vType="DEFAULT_VEHTYPE" speedFactor="1.06" vaporized=""/>
    <tripinfo id="flow_8.0" depart="6.00" departLane="nptocp_0" departPos="5.10" departSpeed="0.00" departDelay="6.00" arrival="64.00" arrivalLane="cptoep_2" arrivalPos="186.40" arrivalSpeed="12.41" duration="58.00" routeLength="392.21" waitingTime="19.00" waitingCount="1" stopTime="0.00" timeLoss="27.12" rerouteNo="0" devices="tripinfo_flow_8.0 routing_flow_8.0" vType="DEFAULT_VEHTYPE" speedFactor="0.94" vaporized=""/>
    <tripinfo id="flow_0.1" depart="36.00" departLane="sptocp_0" departPos="5.10" departSpeed="0.00" departDelay="0.00" arrival="70.00" arrivalLane="cptowp_2" arrivalPos="186.40" arrivalSpeed="12.74" duration="34.00" routeLength="392.21" waitingTime="0.00" waitingCount="0" stopTime="0.00" timeLoss="4.44" rerouteNo="0" devices="tripinfo_flow_0.1 routing_flow_0.1" vType="DEFAULT_VEHTYPE" speedFactor="0.99" vaporized=""/>
    <tripinfo id="flow_6.3" depart="36.00" departLane="nptocp_0" departPos="5.10" departSpeed="0.00" departDelay="0.00" arrival="70.00" arrivalLane="cptowp_0" arrivalPos="186.40" arrivalSpeed="13.47" duration="34.00" routeLength="376.73" waitingTime="0.00" waitingCount="0" stopTime="0.00" timeLoss="6.91" rerouteNo="0" devices="tripinfo_flow_6.3 routing_flow_6.3" vType="DEFAULT_VEHTYPE" speedFactor="1.03" vaporized=""/>
    <tripinfo id="flow_4.0" depart="2.00" departLane="eptocp_0" departPos="5.10" departSpeed="0.00" departDelay="2.00" arrival="76.00" arrivalLane="cptowp_0" arrivalPos="186.40" arrivalSpeed="13.22" duration="74.00" routeLength="394.90" waitingTime="36.00" waitingCount="1" stopTime="0.00" timeLoss="45.92" rerouteNo="0" devices="tripinfo_flow_4.0 routing_flow_4.0" vType="DEFAULT_VEHTYPE" speedFactor="1.03" vaporized=""/>
    <tripinfo id="flow_10.0" depart="3.00" departLane="wptocp_0" departPos="5.10" departSpeed="0.00" departDelay="3.00" arrival="76.00" arrivalLane="cptoep_0" arrivalPos="186.40" arrivalSpeed="13.94" duration="73.00" routeLength="394.90" waitingTime="36.00" waitingCount="1" stopTime="0.00" timeLoss="46.51" rerouteNo="0" devices="tripinfo_flow_10.0 routing_flow_10.0" vType="DEFAULT_VEHTYPE" speedFactor="1.09" vaporized=""/>
    <tripinfo id="flow_10.1" depart="9.00" departLane="wptocp_0" departPos="5.10" departSpeed="0.00" departDelay="3.00" arrival="76.00" arrivalLane="cptoep_1" arrivalPos="186.40" arrivalSpeed="14.32" duration="67.00" routeLength="394.90" waitingTime="27.00" waitingCount="1" stopTime="0.00" timeLoss="39.32" rerouteNo="0" devices="tripinfo_flow_10.1 routing_flow_10.1" vType="DEFAULT_VEHTYPE" speedFactor="1.05" vaporized=""/>
    <tripinfo id="flow_11.0" depart="6.00" departLane="wptocp_0" departPos="5.10" departSpeed="0.00" departDelay="6.00" arrival="78.00" arrivalLane="cptosp_0" arrivalPos="186.40" arrivalSpeed="13.92" duration="72.00" routeLength="376.73" waitingTime="34.00" waitingCount="1" stopTime="0.00" timeLoss="44.60" rerouteNo="0" devices="tripinfo_flow_11.0 routing_flow_11.0" vType="DEFAULT_VEHTYPE" speedFactor="1.03" vaporized=""/>
    <tripinfo id="flow_4.1" depart="12.00" departLane="eptocp_0" departPos="5.10" departSpeed="0.00" departDelay="0.00" arrival="78.00" arrivalLane="cptowp_0" arrivalPos="186.40" arrivalSpeed="11.91" duration="66.00" routeLength="394.90" waitingTime="25.00" waitingCount="1" stopTime="0.00" timeLoss="33.28" rerouteNo="0" devices="tripinfo_flow_4.1 routing_flow_4.1" vType="DEFAULT_VEHTYPE" speedFactor="0.88" vaporized=""/>
    <tripinfo id="flow_10.2" depart="15.00" departLane="wptocp_0" departPos="5.10" departSpeed="0.00" departDelay="3.00" arrival="78.00" arrivalLane="cptoep_1" arrivalPos="186.40" arrivalSpeed="13.99" duration="63.00" routeLength="394.90" waitingTime="25.00" waitingCount="1" stopTime="0.00" timeLoss="34.86" rerouteNo="0" devices="tripinfo_flow_10.2 routing_flow_10.2" vType="DEFAULT_VEHTYPE" speedFactor="1.02" vaporized=""/>
    <tripinfo id="flow_4.2" depart="24.00" departLane="eptocp_0" departPos="5.10" departSpeed="0.00" departDelay="0.00" arrival="79.00" arrivalLane="cptowp_1" arrivalPos="186.40" arrivalSpeed="12.16" duration="55.00" routeLength="394.90" waitingTime="15.00" waitingCount="1" stopTime="0.00" timeLoss="24.96" rerouteNo="0" devices="tripinfo_flow_4.2 routing_flow_4.2" vType="DEFAULT_VEHTYPE" speedFactor="0.95" vaporized=""/>
    <tripinfo id="flow_11.1" depart="12.00" departLane="wptocp_0" departPos="5.10" departSpeed="0.00" departDelay="4.80" arrival="80.00" arrivalLane="cptosp_0" arrivalPos="186.40" arrivalSpeed="15.15" duration="68.00" routeLength="376.73" waitingTime="30.00" waitingCount="1" stopTime="0.00" timeLoss="42.13" rerouteNo="0" devices="tripinfo_flow_11.1 routing_flow_11.1" vType="DEFAULT_VEHTYPE" speedFactor="1.12" vaporized=""/>
    <tripinfo id="flow_4.3" depart="38.00" departLane="eptocp_0" departPos="5.10" departSpeed="0.00" departDelay="2.00" arrival="81.00" arrivalLane="cptowp_1" arrivalPos="186.40" arrivalSpeed="14.86" duration="43.00" routeLength="394.90" waitingTime="4.00" waitingCount="1" stopTime="0.00" timeLoss="16.63" rerouteNo="0" devices="tripinfo_flow_4.3 routing_flow_4.3" vType="DEFAULT_VEHTYPE" speedFactor="1.10" vaporized=""/>
    <tripinfo id="flow_5.0" depart="5.00" departLane="eptocp_0" departPos="5.10" departSpeed="0.00" departDelay="5.00" arrival="82.00" arrivalLane="cptonp_0" arrivalPos="186.40" arrivalSpeed="10.33" duration="77.00" routeLength="376.73" waitingTime="31.00" waitingCount="1" stopTime="0.00" timeLoss="42.92" rerouteNo="0" devices="tripinfo_flow_5.0 routing_flow_5.0" vType="DEFAULT_VEHTYPE" speedFactor="0.83" vaporized=""/>
    <tripinfo id="flow_10.3" depart="23.00" departLane="wptocp_0" departPos="5.10" departSpeed="0.00" departDelay="5.00" arrival="82.00" arrivalLane="cptoep_1" arrivalPos="186.40" arrivalSpeed="11.18" duration="59.00" routeLength="394.90" waitingTime="17.00" waitingCount="1" stopTime="0.00" timeLoss="26.65" rerouteNo="0" devices="tripinfo_flow_10.3 routing_flow_10.3" vType="DEFAULT_VEHTYPE" speedFactor="0.89" vaporized=""/>
    <tripinfo id="flow_11.2" depart="18.00" departLane="wptocp_0" departPos="5.10" departSpeed="0.00" departDelay="3.60" arrival="83.00" arrivalLane="cptosp_0" arrivalPos="186.40" arrivalSpeed="13.83" duration="65.00" routeLength="376.73" waitingTime="24.00" waitingCount="1" stopTime="0.00" timeLoss="37.34" rerouteNo="0" devices="tripinfo_flow_11.2 routing_flow_11.2" vType="DEFAULT_VEHTYPE" speedFactor="1.01" vaporized=""/>
    <tripinfo id="flow_5.1" depart="15.00" departLane="eptocp_0" departPos="5.10" departSpeed="0.00" departDelay="3.00" arrival="84.00" arrivalLane="cptonp_0" arrivalPos="186.40" arrivalSpeed="13.05" duration="69.00" routeLength="376.73" waitingTime="26.00" waitingCount="1" stopTime="0.00" timeLoss="38.87" rerouteNo="0" devices="tripinfo_flow_5.1 routing_flow_5.1" vType="DEFAULT_VEHTYPE" speedFactor="0.94" vaporized=""/>
    <tripinfo id="flow_10.5" depart="35.00" departLane="wptocp_0" departPos="5.10" departSpeed="0.00" departDelay="5.00" arrival="84.00" arrivalLane="cptoep_1" arrivalPos="186.40" arrivalSpeed="15.37" duration="49.00" routeLength="394.90" waitingTime="7.00" waitingCount="1" stopTime="0.00" timeLoss="23.88" rerouteNo="0" devices="tripinfo_flow_10.5 routing_flow_10.5" vType="DEFAULT_VEHTYPE" speedFactor="1.17" vaporized=""/>
    <tripinfo id="flow_5.2" depart="27.00" departLane="eptocp_0" departPos="5.10" departSpeed="0.00" departDelay="3.00" arrival="85.00" arrivalLane="cptonp_0" arrivalPos="186.40" arrivalSpeed="14.86" duration="58.00" routeLength="376.73" waitingTime="17.00" waitingCount="1" stopTime="0.00" timeLoss="32.85" rerouteNo="0" devices="tripinfo_flow_5.2 routing_flow_5.2" vType="DEFAULT_VEHTYPE" speedFactor="1.13" vaporized=""/>
    <tripinfo id="flow_10.6" depart="41.00" departLane="wptocp_0" departPos="5.10" departSpeed="0.00" departDelay="5.00" arrival="85.00" arrivalLane="cptoep_1" arrivalPos="186.40" arrivalSpeed="14.08" duration="44.00" routeLength="394.90" waitingTime="3.00" waitingCount="1" stopTime="0.00" timeLoss="16.54" rerouteNo="0" devices="tripinfo_flow_10.6 routing_flow_10.6" vType="DEFAULT_VEHTYPE" speedFactor="1.04" vaporized=""/>
    <tripinfo id="flow_4.4" depart="48.00" departLane="eptocp_0" departPos="5.10" departSpeed="0.00" departDelay="0.00" arrival="86.00" arrivalLane="cptowp_1" arrivalPos="186.40" arrivalSpeed="11.06" duration="38.00" routeLength="394.90" waitingTime="0.00" waitingCount="0" stopTime="0.00" timeLoss="4.18" rerouteNo="0" devices="tripinfo_flow_4.4 routing_flow_4.4" vType="DEFAULT_VEHTYPE" speedFactor="0.85" vaporized=""/>
    <tripinfo id="flow_10.8" depart="53.00" departLane="wptocp_0" departPos="5.10" departSpeed="0.00" departDelay="5.00" arrival="87.00" arrivalLane="cptoep_1" arrivalPos="186.40" arrivalSpeed="13.56" duration="34.00" routeLength="394.90" waitingTime="0.00" waitingCount="0" stopTime="0.00" timeLoss="5.23" rerouteNo="0" devices="tripinfo_flow_10.8 routing_flow_10.8" vType="DEFAULT_VEHTYPE" speedFactor="1.00" vaporized=""/>
    <tripinfo id="flow_5.3" depart="41.00" departLane="eptocp_0" departPos="5.10" departSpeed="0.00" departDelay="5.00" arrival="88.00" arrivalLane="cptonp_0" arrivalPos="186.40" arrivalSpeed="12.33" duration="47.00" routeLength="376.73" waitingTime="2.00" waitingCount="1" stopTime="0.00" timeLoss="15.84" rerouteNo="0" devices="tripinfo_flow_5.3 routing_flow_5.3" vType="DEFAULT_VEHTYPE" speedFactor="0.90" vaporized=""/>
    <tripinfo id="flow_11.3" depart="26.00" departLane="wptocp_0" departPos="5.10" departSpeed="0.00" departDelay="4.40" arrival="89.00" arrivalLane="cptosp_0" arrivalPos="186.40" arrivalSpeed="10.41" duration="63.00" routeLength="376.73" waitingTime="16.00" waitingCount="1" stopTime="0.00" timeLoss="29.65" rerouteNo="0" devices="tripinfo_flow_11.3 routing_flow_11.3" vType="DEFAULT_VEHTYPE" speedFactor="0.83" vaporized=""/>
    <tripinfo id="flow_10.4" depart="29.00" departLane="wptocp_0" departPos="5.10" departSpeed="0.00" departDelay="5.00" arrival="89.00" arrivalLane="cptoep_1" arrivalPos="186.40" arrivalSpeed="15.31" duration="60.00" routeLength="394.90" waitingTime="24.00" waitingCount="1" stopTime="0.00" timeLoss="35.26" rerouteNo="0" devices="tripinfo_flow_10.4 routing_flow_10.4" vType="DEFAULT_VEHTYPE" speedFactor="1.15" vaporized=""/>
    <tripinfo id="flow_5.4" depart="51.00" departLane="eptocp_0" departPos="5.10" departSpeed="0.00" departDelay="3.00" arrival="90.00" arrivalLane="cptonp_0" arrivalPos="186.40" arrivalSpeed="15.02" duration="39.00" routeLength="376.73" waitingTime="0.00" waitingCount="0" stopTime="0.00" timeLoss="14.08" rerouteNo="0" devices="tripinfo_flow_5.4 routing_flow_5.4" vType="DEFAULT_VEHTYPE" speedFactor="1.17" vaporized=""/>
    <tripinfo id="flow_11.4" depart="32.00" departLane="wptocp_0" departPos="5.10" departSpeed="0.00" departDelay="3.20" arrival="91.00" arrivalLane="cptosp_0" arrivalPos="186.40" arrivalSpeed="13.86" duration="59.00" routeLength="376.73" waitingTime="14.00" waitingCount="1" stopTime="0.00" timeLoss="31.13" rerouteNo="0" devices="tripinfo_flow_11.4 routing_flow_11.4" vType="DEFAULT_VEHTYPE" speedFactor="1.01" vaporized=""/>
    <tripinfo id="flow_4.5" depart="60.00" departLane="eptocp_0" departPos="5.10" departSpeed="0.00" departDelay="0.00" arrival="91.00" arrivalLane="cptowp_0" arrivalPos="186.40" arrivalSpeed="14.76" duration="31.00" routeLength="394.90" waitingTime="0.00" waitingCount="0" stopTime="0.00" timeLoss="4.69" rerouteNo="0" devices="tripinfo_flow_4.5 routing_flow_4.5" vType="DEFAULT_VEHTYPE" speedFactor="1.12" vaporized=""/>
    <tripinfo id="flow_11.5" depart="44.00" departLane="wptocp_0" departPos="5.10" departSpeed="0.00" departDelay="8.00" arrival="93.00" arrivalLane="cptosp_0" arrivalPos="186.40" arrivalSpeed="14.90" duration="49.00" routeLength="376.73" waitingTime="4.00" waitingCount="1" stopTime="0.00" timeLoss="22.49" rerouteNo="0" devices="tripinfo_flow_11.5 routing_flow_11.5" vType="DEFAULT_VEHTYPE" speedFactor="1.09" vaporized=""/>
    <tripinfo id="flow_10.7" depart="47.00" departLane="wptocp_0" departPos="5.10" departSpeed="0.00" departDelay="5.00" arrival="93.00" arrivalLane="cptoep_1" arrivalPos="186.40" arrivalSpeed="13.25" duration="46.00" routeLength="394.90" waitingTime="6.00" waitingCount="1" stopTime="0.00" timeLoss="17.32" rerouteNo="0" devices="tripinfo_flow_10.7 routing_flow_10.7" vType="DEFAULT_VEHTYPE" speedFactor="1.00" vaporized=""/>
    <tripinfo id="flow_10.9" depart="61.00" departLane="wptocp_0" departPos="5.10" departSpeed="0.00" departDelay="7.00" arrival="95.00" arrivalLane="cptoep_1" arrivalPos="186.40" arrivalSpeed="15.78" duration="34.00" routeLength="394.90" waitingTime="0.00" waitingCount="0" stopTime="0.00" timeLoss="8.55" rerouteNo="0" devices="tripinfo_flow_10.9 routing_flow_10.9" vType="DEFAULT_VEHTYPE" speedFactor="1.14" vaporized=""/>
    <tripinfo id="flow_11.6" depart="50.00" departLane="wptocp_0" departPos="5.10" departSpeed="0.00" departDelay="6.80" arrival="96.00" arrivalLane="cptosp_0" arrivalPos="186.40" arrivalSpeed="11.92" duration="46.00" routeLength="376.73" waitingTime="0.00" waitingCount="0" stopTime="0.00" timeLoss="14.01" rerouteNo="0" devices="tripinfo_flow_11.6 routing_flow_11.6" vType="DEFAULT_VEHTYPE" speedFactor="0.90" vaporized=""/>
    <tripinfo id="flow_11.7" depart="56.00" departLane="wptocp_0" departPos="5.10" departSpeed="0.00" departDelay="5.60" arrival="97.00" arrivalLane="cptosp_0" arrivalPos="186.40" arrivalSpeed="12.60" duration="41.00" routeLength="376.73" waitingTime="0.00" waitingCount="0" stopTime="0.00" timeLoss="12.58" rerouteNo="0" devices="tripinfo_flow_11.7 routing_flow_11.7" vType="DEFAULT_VEHTYPE" speedFactor="1.00" vaporized=""/>
    <tripinfo id="flow_5.5" depart="63.00" departLane="eptocp_0" departPos="5.10" departSpeed="0.00" departDelay="3.00" arrival="97.00" arrivalLane="cptonp_0" arrivalPos="186.40" arrivalSpeed="13.16" duration="34.00" routeLength="376.73" waitingTime="0.00" waitingCount="0" stopTime="0.00" timeLoss="5.89" rerouteNo="0" devices="tripinfo_flow_5.5 routing_flow_5.5" vType="DEFAULT_VEHTYPE" speedFactor="1.02" vaporized=""/>
    <tripinfo id="flow_11.8" depart="64.00" departLane="wptocp_0" departPos="5.10" departSpeed="0.00" departDelay="6.40" arrival="99.00" arrivalLane="cptosp_0" arrivalPos="186.40" arrivalSpeed="13.86" duration="35.00" routeLength="376.73" waitingTime="0.00" waitingCount="0" stopTime="0.00" timeLoss="7.52" rerouteNo="0" devices="tripinfo_flow_11.8 routing_flow_11.8" vType="DEFAULT_VEHTYPE" speedFactor="1.02" vaporized=""/>
    <tripinfo id="flow_10.10" depart="67.00" departLane="wptocp_0" departPos="5.10" departSpeed="0.00" departDelay="7.00" arrival="104.00" arrivalLane="cptoep_0" arrivalPos="186.40" arrivalSpeed="11.66" duration="37.00" routeLength="394.90" waitingTime="0.00" waitingCount="0" stopTime="0.00" timeLoss="4.34" rerouteNo="0" devices="tripinfo_flow_10.10 routing_flow_10.10" vType="DEFAULT_VEHTYPE" speedFactor="0.88" vaporized=""/>
    <tripinfo id="flow_11.9" depart="70.00" departLane="wptocp_0" departPos="5.10" departSpeed="0.00" departDelay="5.20" arrival="107.00" arrivalLane="cptosp_0" arrivalPos="186.40" arrivalSpeed="12.10" duration="37.00" routeLength="376.73" waitingTime="0.00" waitingCount="0" stopTime="0.00" timeLoss="5.96" rerouteNo="0" devices="tripinfo_flow_11.9 routing_flow_11.9" vType="DEFAULT_VEHTYPE" speedFactor="0.91" vaporized=""/>
    <tripinfo id="flow_10.11" depart="73.00" departLane="wptocp_0" departPos="5.10" departSpeed="0.00" departDelay="7.00" arrival="109.00" arrivalLane="cptoep_1" arrivalPos="186.40" arrivalSpeed="11.71" duration="36.00" routeLength="394.90" waitingTime="0.00" waitingCount="0" stopTime="0.00" timeLoss="4.77" rerouteNo="0" devices="tripinfo_flow_10.11 routing_flow_10.11" vType="DEFAULT_VEHTYPE" speedFactor="0.91" vaporized=""/>
    <tripinfo id="flow_4.6" depart="74.00" departLane="eptocp_0" departPos="5.10" departSpeed="0.00" departDelay="2.00" arrival="109.00" arrivalLane="cptowp_0" arrivalPos="186.40" arrivalSpeed="11.97" duration="35.00" routeLength="394.90" waitingTime="0.00" waitingCount="0" stopTime="0.00" timeLoss="4.55" rerouteNo="0" devices="tripinfo_flow_4.6 routing_flow_4.6" vType="DEFAULT_VEHTYPE" speedFactor="0.94" vaporized=""/>
    <tripinfo id="flow_5.6" depart="77.00" departLane="eptocp_0" departPos="5.10" departSpeed="0.00" departDelay="5.00" arrival="111.00" arrivalLane="cptonp_0" arrivalPos="186.40" arrivalSpeed="14.09" duration="34.00" routeLength="376.73" waitingTime="0.00" waitingCount="0" stopTime="0.00" timeLoss="7.33" rerouteNo="0" devices="tripinfo_flow_5.6 routing_flow_5.6" vType="DEFAULT_VEHTYPE" speedFactor="1.06" vaporized=""/>
    <tripinfo id="flow_10.12" depart="78.00" departLane="wptocp_0" departPos="5.10" departSpeed="0.00" departDelay="6.00" arrival="111.00" arrivalLane="cptoep_0" arrivalPos="186.40" arrivalSpeed="13.56" duration="33.00" routeLength="394.90" waitingTime="0.00" waitingCount="0" stopTime="0.00" timeLoss="4.04" rerouteNo="0" devices="tripinfo_flow_10.12 routing_flow_10.12" vType="DEFAULT_VEHTYPE" speedFactor="1.01" vaporized=""/>
    <tripinfo id="flow_11.10" depart="81.00" departLane="wptocp_0" departPos="5.10" departSpeed="0.00" departDelay="9.00" arrival="113.00" arrivalLane="cptosp_0" arrivalPos="186.40" arrivalSpeed="14.18" duration="32.00" routeLength="376.73" waitingTime="0.00" waitingCount="0" stopTime="0.00" timeLoss="6.29" rerouteNo="0" devices="tripinfo_flow_11.10 routing_flow_11.10" vType="DEFAULT_VEHTYPE" speedFactor="1.09" vaporized=""/>
    <tripinfo id="flow_4.7" depart="84.00" departLane="eptocp_0" departPos="5.10" departSpeed="0.00" departDelay="0.00" arrival="113.00" arrivalLane="cptowp_0" arrivalPos="186.40" arrivalSpeed="15.31" duration="29.00" routeLength="394.90" waitingTime="0.00" waitingCount="0" stopTime="0.00" timeLoss="4.21" rerouteNo="0" devices="tripinfo_flow_4.7 routing_flow_4.7" vType="DEFAULT_VEHTYPE" speedFactor="1.15" vaporized=""/>
    <tripinfo id="flow_3.0" depart="0.00" departLane="eptocp_0" departPos="5.10" departSpeed="0.00" departDelay="0.00" arrival="121.00" arrivalLane="cptosp_2" arrivalPos="186.40" arrivalSpeed="14.41" duration="121.00" routeLength="392.21" waitingTime="83.00" waitingCount="1" stopTime="0.00" timeLoss="93.56" rerouteNo="0" devices="tripinfo_flow_3.0 routing_flow_3.0" vType="DEFAULT_VEHTYPE" speedFactor="1.08" vaporized=""/>
    <tripinfo id="flow_5.7" depart="87.00" departLane="eptocp_0" departPos="5.10" departSpeed="0.00" departDelay="3.00" arrival="121.00" arrivalLane="cptonp_0" arrivalPos="186.40" arrivalSpeed="12.34" duration="34.00" routeLength="376.73" waitingTime="0.00" waitingCount="0" stopTime="0.00" timeLoss="5.69" rerouteNo="0" devices="tripinfo_flow_5.7 routing_flow_5.7" vType="DEFAULT_VEHTYPE" speedFactor="0.98" vaporized=""/>
    <tripinfo id="flow_3.1" depart="36.00" departLane="eptocp_0" departPos="5.10" departSpeed="0.00" departDelay="0.00" arrival="122.00" arrivalLane="cptosp_2" arrivalPos="186.40" arrivalSpeed="15.85" duration="86.00" routeLength="392.21" waitingTime="50.00" waitingCount="1" stopTime="0.00" timeLoss="61.33" rerouteNo="0" devices="tripinfo_flow_3.1 routing_flow_3.1" vType="DEFAULT_VEHTYPE" speedFactor="1.18" vaporized=""/>
    <tripinfo id="flow_9.0" depart="0.00" departLane="wptocp_0" departPos="5.10" departSpeed="0.00" departDelay="0.00" arrival="124.00" arrivalLane="cptonp_2" arrivalPos="186.40" arrivalSpeed="10.74" duration="124.00" routeLength="392.21" waitingTime="80.00" waitingCount="1" stopTime="0.00" timeLoss="89.65" rerouteNo="0" devices="tripinfo_flow_9.0 routing_flow_9.0" vType="DEFAULT_VEHTYPE" speedFactor="0.86" vaporized=""/>
    <tripinfo id="flow_9.1" depart="21.00" departLane="wptocp_0" departPos="5.10" departSpeed="0.00" departDelay="3.00" arrival="125.00" arrivalLane="cptonp_2" arrivalPos="186.40" arrivalSpeed="13.04" duration="104.00" routeLength="392.21" waitingTime="62.00" waitingCount="1" stopTime="0.00" timeLoss="74.41" rerouteNo="0" devices="tripinfo_flow_9.1 routing_flow_9.1" vType="DEFAULT_VEHTYPE" speedFactor="0.98" vaporized=""/>
    <tripinfo id="flow_3.2" depart="72.00" departLane="eptocp_0" departPos="5.10" departSpeed="0.00" departDelay="0.00" arrival="126.00" arrivalLane="cptosp_2" arrivalPos="186.40" arrivalSpeed="13.18" duration="54.00" routeLength="392.21" waitingTime="14.00" waitingCount="1" stopTime="0.00" timeLoss="23.56" rerouteNo="0" devices="tripinfo_flow_3.2 routing_flow_3.2" vType="DEFAULT_VEHTYPE" speedFactor="0.97" vaporized=""/>
    <tripinfo id="flow_9.2" depart="38.00" departLane="wptocp_0" departPos="5.10" departSpeed="0.00" departDelay="2.00" arrival="127.00" arrivalLane="cptonp_2" arrivalPos="186.40" arrivalSpeed="13.72" duration="89.00" routeLength="392.21" waitingTime="45.00" waitingCount="2" stopTime="0.00" timeLoss="60.75" rerouteNo="0" devices="tripinfo_flow_9.2 routing_flow_9.2" vType="DEFAULT_VEHTYPE" speedFactor="1.04" vaporized=""/>
    <tripinfo id="flow_9.3" depart="59.00" departLane="wptocp_0" departPos="5.10" departSpeed="0.00" departDelay="5.00" arrival="129.00" arrivalLane="cptonp_2" arrivalPos="186.40" arrivalSpeed="12.16" duration="70.00" routeLength="392.21" waitingTime="28.00" waitingCount="1" stopTime="0.00" timeLoss="37.44" rerouteNo="0" devices="tripinfo_flow_9.3 routing_flow_9.3" vType="DEFAULT_VEHTYPE" speedFactor="0.90" vaporized=""/>
    <tripinfo id="flow_1.3" depart="38.00" departLane="sptocp_0" departPos="5.10" departSpeed="0.00" departDelay="2.00" arrival="134.00" arrivalLane="cptonp_0" arrivalPos="186.40" arrivalSpeed="13.90" duration="96.00" routeLength="394.90" waitingTime="58.00" waitingCount="1" stopTime="0.00" timeLoss="67.75" rerouteNo="0" devices="tripinfo_flow_1.3 routing_flow_1.3" vType="DEFAULT_VEHTYPE" speedFactor="1.02" vaporized=""/>
    <tripinfo id="flow_9.4" depart="76.00" departLane="wptocp_0" departPos="5.10" departSpeed="0.00" departDelay="4.00" arrival="134.00" arrivalLane="cptonp_2" arrivalPos="186.40" arrivalSpeed="12.60" duration="58.00" routeLength="392.21" waitingTime="14.00" waitingCount="2" stopTime="0.00" timeLoss="27.65" rerouteNo="0" devices="tripinfo_flow_9.4 routing_flow_9.4" vType="DEFAULT_VEHTYPE" speedFactor="0.98" vaporized=""/>
    <tripinfo id="flow_7.4" depart="51.00" departLane="nptocp_0" departPos="5.10" departSpeed="0.00" departDelay="3.00" arrival="135.00" arrivalLane="cptosp_0" arrivalPos="186.40" arrivalSpeed="15.22" duration="84.00" routeLength="394.90" waitingTime="45.00" waitingCount="1" stopTime="0.00" timeLoss="57.08" rerouteNo="0" devices="tripinfo_flow_7.4 routing_flow_7.4" vType="DEFAULT_VEHTYPE" speedFactor="1.10" vaporized=""/>
    <tripinfo id="flow_7.3" depart="39.00" departLane="nptocp_0" departPos="5.10" departSpeed="0.00" departDelay="3.00" arrival="136.00" arrivalLane="cptosp_0" arrivalPos="186.40" arrivalSpeed="12.42" duration="97.00" routeLength="394.90" waitingTime="56.00" waitingCount="1" stopTime="0.00" timeLoss="67.03" rerouteNo="0" devices="tripinfo_flow_7.3 routing_flow_7.3" vType="DEFAULT_VEHTYPE" speedFactor="0.96" vaporized=""/>
    <tripinfo id="flow_6.4" depart="48.00" departLane="nptocp_0" departPos="5.10" departSpeed="0.00" departDelay="0.00" arrival="136.00" arrivalLane="cptowp_0" arrivalPos="186.40" arrivalSpeed="13.96" duration="88.00" routeLength="376.73" waitingTime="50.00" waitingCount="1" stopTime="0.00" timeLoss="60.09" rerouteNo="0" devices="tripinfo_flow_6.4 routing_flow_6.4" vType="DEFAULT_VEHTYPE" speedFactor="1.02" vaporized=""/>
    <tripinfo id="flow_1.2" depart="24.00" departLane="sptocp_0" departPos="5.10" departSpeed="0.00" departDelay="0.00" arrival="137.00" arrivalLane="cptonp_0" arrivalPos="186.40" arrivalSpeed="11.38" duration="113.00" routeLength="394.90" waitingTime="71.00" waitingCount="1" stopTime="0.00" timeLoss="79.78" rerouteNo="0" devices="tripinfo_flow_1.2 routing_flow_1.2" vType="DEFAULT_VEHTYPE" speedFactor="0.87" vaporized=""/>
    <tripinfo id="flow_2.2" depart="27.00" departLane="sptocp_0" departPos="5.10" departSpeed="0.00" departDelay="3.00" arrival="137.00" arrivalLane="cptoep_0" arrivalPos="186.40" arrivalSpeed="11.94" duration="110.00" routeLength="376.73" waitingTime="68.00" waitingCount="1" stopTime="0.00" timeLoss="79.88" rerouteNo="0" devices="tripinfo_flow_2.2 routing_flow_2.2" vType="DEFAULT_VEHTYPE" speedFactor="0.92" vaporized=""/>